7
Lattice="19.99998809747343 0.0 0.0 0.0 19.99998809747343 0.0 0.0 0.0 19.99998809747343" Properties=species:S:1:pos:R:3:forces:R:3 energy=-1438.3829371366614396 pbc="T T T"
B        -0.8182721258973714        0.1496631504092364        1.3264588871884229       -0.0107128383155226       -0.0747261235164583        0.0084461133233437
O        -1.8652590436453143        0.5759955035703043        0.5702740219642375       -0.4798323004172664        0.3604458094783650       -0.5538305599715635
O         0.3029837550601813       -0.3321891896813434        0.7261686513140596        0.7193484173108069       -0.2432587315866312       -0.2286465650389608
O        -0.9006067565480125        0.1927479236802063        2.6833358385123689       -0.0552297998191092        0.2410158501442788        0.7895474116984632
H        -1.5955641783922196        0.6053695728403486       -0.3644301531441391       -0.2057699234546499       -0.0080124412503108       -0.1643996880347213
H         0.9860095412672426       -0.4905609803372976        1.4011920944569560        0.1854356599501231       -0.1442698566798333       -0.0811534094022536
H        -1.6610585123540522        0.7424543866617118        2.9417704565205649       -0.1128926807702413       -0.1064286947085765        0.2416705816806418
7
Lattice="19.99998809747343 0.0 0.0 0.0 19.99998809747343 0.0 0.0 0.0 19.99998809747343" Properties=species:S:1:pos:R:3:forces:R:3 energy=-1438.4163491488375257 pbc="T T T"
B        -0.8183767727351237        0.1488652691805908        1.3265643732332852        0.0019055183508496       -0.0130111737196189        0.0083766759315054
O        -1.8689961363773144        0.5789217706143528        0.5654610928508556       -0.2905525542200649        0.2625490622961591       -0.4585828212633731
O         0.3090356865581622       -0.3342063308233462        0.7245906698238156        0.5557580476772338       -0.1790189771218634       -0.0939925997227452
O        -0.9013025541999130        0.1949054650725641        2.6897718257273513       -0.0871310680350547        0.2303242624701953        0.5580082661554138
H        -1.6230531194989297        0.6034593362305675       -0.3783715806391140       -0.1521767329466434       -0.0368744302173365        0.0129569385544623
H         1.0041926360106699       -0.5078729311499893        1.3866975794574166        0.0207291486983057       -0.0842527843240543       -0.1165136538610014
H        -1.6708726202812063        0.7248209714442138        2.9700015503279569       -0.0073896961384208       -0.1582567483735798        0.1047385585630693
7
Lattice="19.99998809747343 0.0 0.0 0.0 19.99998809747343 0.0 0.0 0.0 19.99998809747343" Properties=species:S:1:pos:R:3:forces:R:3 energy=-1438.4428818722260530 pbc="T T T"
B        -0.8184233343386985        0.1478438670321646        1.3268426589126210        0.0257500174163541        0.0785628527142405        0.0067821868837589
O        -1.8767432549386929        0.5854048244082649        0.5550209909824925        0.0186753600681380        0.0528664395132466        0.0997898115855096
O         0.3221779228961438       -0.3385159097119022        0.7213958510366458       -0.0536319317938844        0.0318255537436433       -0.0521948789735022
O        -0.9027486532141081        0.1999511728104504        2.7035640599139539        0.1098594658918322        0.0333022177955853       -0.0265062525143706
H        -1.6811634894746621        0.5932741554957922       -0.3979869865428720        0.0328509804631512       -0.0743209063067478       -0.0186323495694947
H         1.0327124355652657       -0.5452093414342480        1.3530235557426882       -0.0225894020990876       -0.0370092800019305        0.0563692595667791
H        -1.6888320658185381        0.6766618976286403        3.0228491091404264       -0.0684675487572159       -0.0674033157867328       -0.0446501134364135
7
Lattice="19.99998809747343 0.0 0.0 0.0 19.99998809747343 0.0 0.0 0.0 19.99998809747343" Properties=species:S:1:pos:R:3:forces:R:3 energy=-1438.4236310600172146 pbc="T T T"
B        -0.8179334800388893        0.1483473335093973        1.3272574567649422        0.0475154884961225        0.1099648484169820        0.0022719259131574
O        -1.8841916648596846        0.5926547016422123        0.5455261450725576        0.3411224304925546       -0.1344434777789871        0.4417518991889485
O         0.3349136459548839       -0.3424747051570313        0.7177106615210332       -0.4960090738542877        0.2066696963660407        0.0974375908878900
O        -0.9029706531214932        0.2056527708726371        2.7171693940247161        0.1618221876240705       -0.0663924681114136       -0.5160157167523796
H        -1.7336361226871955        0.5668774690880258       -0.4161095361278135        0.1481210602537284       -0.0931654209735761        0.0811119873636705
H         1.0523475011691337       -0.5895886816010240        1.3277660686086137       -0.1439868914127994        0.0317573485926919        0.1068810795511859
H        -1.7175699124485755        0.6111704277704147        3.0647604728205757       -0.0138065806933944       -0.0354543539091642       -0.1868924309073212
7
Lattice="19.99998809747343 0.0 0.0 0.0 19.99998809747343 0.0 0.0 0.0 19.99998809747343" Properties=species:S:1:pos:R:3:forces:R:3 energy=-1438.4110465013745852 pbc="T T T"
B        -0.8164835043142574        0.1510401631997408        1.3277199362129219        0.0502203872743498        0.0813382742596545       -0.0021661234604921
O        -1.8869879042851128        0.5981101447514203        0.5421443948237190        0.5151661505365874       -0.2422469806549288        0.5888324090771198
O         0.3408373630216503       -0.3435672194540111        0.7152867595940663       -0.7055699915712965        0.3015180122372953        0.1897103621981432
O        -0.9009013100253689        0.2104583608395475        2.7237223203955270        0.1516895536731797       -0.1189341694169117       -0.7624419701906696
H        -1.7547343277525380        0.5202263532987164       -0.4194456364448944        0.1643340382262801       -0.0653731872612512        0.0798457657620883
H         1.0431170489444737       -0.6283121509368577        1.3265520785516078       -0.1407390043253606        0.0534031519961784        0.1172869446442424
H        -1.7512050296896451        0.5384053069490784        3.0680667281166483        0.0104707901696774        0.0211221101406040       -0.1837956233191424
